<?xml version="1.0"?>
<VTKFile type="UnstructuredGrid" version="0.1" byte_order="BigEndian">
<UnstructuredGrid GhostLevel="0">
<Piece NumberOfPoints="2322" NumberOfCells="1232" ><Points>
<DataArray type="Float32" NumberOfComponents="3" format="ascii">
0	1000	100	0	900	100	100	1000	100	100	900	100	0	1000	75	0	900	75	100	1000	75	100	900	75	200	1000	100	200	900	100	200	1000	75	200	900	75	300	1000	100	300	900	100	300	1000	75	300	900	75	400	1000	100	400	900	100	400	1000	75	400	900	75	500	1000	100	500	900	100	500	1000	75	500	900	75	600	1000	100	600	900	100	600	1000	75	600	900	75	700	1000	100	700	900	100	700	1000	75	700	900	75	800	1000	100	800	900	100	800	1000	75	800	900	75	900	1000	100	900	900	100	900	1000	75	900	900	75	1000	1000	100	1000	900	100	1000	1000	75	1000	900	75	200	800	100	300	800	100	200	800	75	300	800	75	400	800	100	400	800	75	500	800	100	500	800	75	600	800	100	600	800	75	700	800	100	700	800	75	800	800	100	800	800	75	900	800	100	900	800	75	1000	800	100	1000	800	75	300	700	100	400	700	100	300	700	75	400	700	75	500	700	100	500	700	75	600	700	100	600	700	75	700	700	100	700	700	75	800	700	100	800	700	75	0	700	100	0	600	100	100	700	100	100	600	100	0	700	75	0	600	75	100	700	75	100	600	75	200	700	100	200	600	100	200	700	75	200	600	75	300	600	100	300	600	75	400	600	100	400	600	75	500	600	100	500	600	75	600	600	100	600	600	75	0	500	100	100	500	100	0	500	75	100	500	75	200	500	100	200	500	75	300	500	100	300	500	75	400	500	100	400	500	75	500	500	100	500	500	75	800	500	100	800	400	100	900	500	100	900	400	100	800	500	75	800	400	75	900	500	75	900	400	75	1000	500	100	1000	400	100	1000	500	75	1000	400	75	600	400	100	600	300	100	700	400	100	700	300	100	600	400	75	600	300	75	700	400	75	700	300	75	800	300	100	900	300	100	800	300	75	900	300	75	1000	300	100	1000	300	75	500	300	100	500	200	100	600	200	100	500	300	75	500	200	75	600	200	75	900	200	100	1000	200	100	900	200	75	1000	200	75	0	200	100	0	100	100	100	200	100	100	100	100	0	200	75	0	100	75	100	200	75	100	100	75	200	200	100	200	100	100	200	200	75	200	100	75	300	200	100	300	100	100	300	200	75	300	100	75	400	200	100	400	100	100	400	200	75	400	100	75	500	100	100	500	100	75	600	100	100	600	100	75	700	200	100	700	100	100	700	200	75	700	100	75	900	100	100	1000	100	100	900	100	75	1000	100	75	0	0	100	100	0	100	0	0	75	100	0	75	200	0	100	200	0	75	300	0	100	300	0	75	400	0	100	400	0	75	500	0	100	500	0	75	600	0	100	600	0	75	700	0	100	700	0	75	800	100	100	800	0	100	800	100	75	800	0	75	900	0	100	900	0	75	1000	0	100	1000	0	75	0	1000	50	0	900	50	100	1000	50	100	900	50	200	1000	50	200	900	50	300	1000	50	300	900	50	400	1000	50	400	900	50	500	1000	50	500	900	50	600	1000	50	600	900	50	700	1000	50	700	900	50	800	1000	50	800	900	50	900	1000	50	900	900	50	1000	1000	50	1000	900	50	200	800	50	300	800	50	400	800	50	500	800	50	600	800	50	700	800	50	800	800	50	900	800	50	1000	800	50	300	700	50	400	700	50	500	700	50	600	700	50	700	700	50	800	700	50	0	700	50	0	600	50	100	700	50	100	600	50	200	700	50	200	600	50	300	600	50	400	600	50	500	600	50	600	600	50	0	500	50	100	500	50	200	500	50	300	500	50	400	500	50	500	500	50	800	500	50	800	400	50	900	500	50	900	400	50	1000	500	50	1000	400	50	600	400	50	600	300	50	700	400	50	700	300	50	800	300	50	900	300	50	1000	300	50	500	300	50	500	200	50	600	200	50	900	200	50	1000	200	50	0	200	50	0	100	50	100	200	50	100	100	50	200	200	50	200	100	50	300	200	50	300	100	50	400	200	50	400	100	50	500	100	50	600	100	50	700	200	50	700	100	50	900	100	50	1000	100	50	0	0	50	100	0	50	200	0	50	300	0	50	400	0	50	500	0	50	600	0	50	700	0	50	800	100	50	800	0	50	900	0	50	1000	0	50	0	850	100	50	900	100	50	850	100	0	850	75	50	900	75	50	850	75	100	850	100	100	850	75	0	800	100	50	800	100	0	800	75	50	800	75	50	825	100	75	850	100	75	825	100	50	825	75	75	850	75	75	825	75	100	825	100	100	825	75	75	800	100	75	800	75	100	800	100	100	800	75	150	900	100	150	850	100	150	900	75	150	850	75	200	850	100	200	850	75	150	800	100	150	800	75	125	850	100	125	825	100	125	850	75	125	825	75	150	825	100	150	825	75	125	800	100	125	800	75	100	812.5	100	112.5	825	100	112.5	812.5	100	100	812.5	75	112.5	825	75	112.5	812.5	75	125	812.5	100	125	812.5	75	112.5	800	100	112.5	800	75	0	750	100	50	750	100	0	750	75	50	750	75	50	700	100	50	700	75	100	750	100	100	750	75	50	775	100	75	775	100	50	775	75	75	775	75	100	775	100	100	775	75	75	750	100	75	750	75	150	750	100	150	700	100	150	750	75	150	700	75	200	750	100	200	750	75	125	775	100	125	750	100	125	775	75	125	750	75	150	775	100	150	775	75	100	787.5	100	112.5	787.5	100	100	787.5	75	112.5	787.5	75	112.5	775	100	112.5	775	75	125	787.5	100	125	787.5	75	112.5	793.75	100	118.75	800	100	118.75	793.75	100	112.5	793.75	75	118.75	800	75	118.75	793.75	75	125	793.75	100	125	793.75	75	118.75	787.5	100	118.75	787.5	75	137.5	800	100	137.5	787.5	100	137.5	800	75	137.5	787.5	75	150	787.5	100	150	787.5	75	137.5	775	100	137.5	775	75	175	800	100	175	775	100	175	800	75	175	775	75	200	775	100	200	775	75	175	750	100	175	750	75	250	800	100	250	750	100	250	800	75	250	750	75	300	750	100	300	750	75	250	700	100	250	700	75	800	750	100	850	800	100	850	750	100	800	750	75	850	800	75	850	750	75	900	750	100	900	750	75	850	700	100	850	700	75	900	700	100	900	700	75	950	800	100	950	750	100	950	800	75	950	750	75	1000	750	100	1000	750	75	950	700	100	950	700	75	950	725	100	975	750	100	975	725	100	950	725	75	975	750	75	975	725	75	1000	725	100	1000	725	75	975	700	100	975	700	75	1000	700	100	1000	700	75	600	650	100	650	700	100	650	650	100	600	650	75	650	700	75	650	650	75	700	650	100	700	650	75	650	600	100	650	600	75	700	600	100	700	600	75	750	700	100	750	650	100	750	700	75	750	650	75	800	650	100	800	650	75	700	625	100	725	650	100	725	625	100	700	625	75	725	650	75	725	625	75	750	625	100	750	625	75	725	600	100	725	600	75	725	612.5	100	737.5	625	100	737.5	612.5	100	725	612.5	75	737.5	625	75	737.5	612.5	75	750	612.5	100	750	612.5	75	737.5	600	100	737.5	600	75	750	600	100	750	600	75	775	650	100	775	625	100	775	650	75	775	625	75	800	625	100	800	625	75	762.5	625	100	762.5	612.5	100	762.5	625	75	762.5	612.5	75	775	612.5	100	775	612.5	75	762.5	600	100	762.5	600	75	775	600	100	775	600	75	787.5	625	100	787.5	612.5	100	787.5	625	75	787.5	612.5	75	800	612.5	100	800	612.5	75	787.5	600	100	787.5	600	75	800	600	100	800	600	75	800	675	100	825	700	100	825	675	100	800	675	75	825	700	75	825	675	75	850	675	100	850	675	75	825	650	100	825	650	75	850	650	100	850	650	75	875	700	100	875	675	100	875	700	75	875	675	75	900	675	100	900	675	75	875	650	100	875	650	75	900	650	100	900	650	75	825	625	100	825	625	75	825	637.5	100	837.5	650	100	837.5	637.5	100	825	637.5	75	837.5	650	75	837.5	637.5	75	850	637.5	100	850	637.5	75	837.5	625	100	837.5	625	75	850	625	100	850	625	75	812.5	625	100	812.5	612.5	100	812.5	625	75	812.5	612.5	75	825	612.5	100	825	612.5	75	812.5	600	100	812.5	600	75	825	600	100	825	600	75	837.5	612.5	100	837.5	612.5	75	850	612.5	100	850	612.5	75	837.5	600	100	837.5	600	75	850	600	100	850	600	75	875	625	100	875	600	100	875	625	75	875	600	75	900	625	100	900	600	100	900	625	75	900	600	75	862.5	650	100	862.5	637.5	100	862.5	650	75	862.5	637.5	75	875	637.5	100	875	637.5	75	862.5	625	100	862.5	625	75	887.5	650	100	887.5	637.5	100	887.5	650	75	887.5	637.5	75	900	637.5	100	900	637.5	75	887.5	625	100	887.5	625	75	925	700	100	925	675	100	925	700	75	925	675	75	950	675	100	950	675	75	900	662.5	100	912.5	675	100	912.5	662.5	100	900	662.5	75	912.5	675	75	912.5	662.5	75	925	662.5	100	925	662.5	75	912.5	650	100	912.5	650	75	925	650	100	925	650	75	937.5	675	100	937.5	662.5	100	937.5	675	75	937.5	662.5	75	950	662.5	100	950	662.5	75	937.5	650	100	937.5	650	75	950	650	100	950	650	75	975	675	100	975	675	75	975	687.5	100	987.5	700	100	987.5	687.5	100	975	687.5	75	987.5	700	75	987.5	687.5	75	1000	687.5	100	1000	687.5	75	987.5	675	100	987.5	675	75	1000	675	100	1000	675	75	962.5	675	100	962.5	662.5	100	962.5	675	75	962.5	662.5	75	975	662.5	100	975	662.5	75	962.5	650	100	962.5	650	75	975	650	100	975	650	75	987.5	662.5	100	987.5	662.5	75	1000	662.5	100	1000	662.5	75	987.5	650	100	987.5	650	75	1000	650	100	1000	650	75	925	625	100	950	625	100	925	625	75	950	625	75	925	600	100	925	600	75	950	600	100	950	600	75	912.5	637.5	100	912.5	637.5	75	925	637.5	100	925	637.5	75	912.5	625	100	912.5	625	75	975	625	100	975	625	75	1000	625	100	1000	625	75	975	600	100	975	600	75	1000	600	100	1000	600	75	500	550	100	550	600	100	550	550	100	500	550	75	550	600	75	550	550	75	600	550	100	600	550	75	550	500	100	550	500	75	550	525	100	575	550	100	575	525	100	550	525	75	575	550	75	575	525	75	600	525	100	600	525	75	575	500	100	575	500	75	600	500	100	600	500	75	650	550	100	650	550	75	650	575	100	675	600	100	675	575	100	650	575	75	675	600	75	675	575	75	700	575	100	700	575	75	675	550	100	675	550	75	675	562.5	100	687.5	575	100	687.5	562.5	100	675	562.5	75	687.5	575	75	687.5	562.5	75	700	562.5	100	700	562.5	75	687.5	550	100	687.5	550	75	700	550	100	700	550	75	625	550	100	625	525	100	625	550	75	625	525	75	650	525	100	650	525	75	600	512.5	100	612.5	525	100	612.5	512.5	100	600	512.5	75	612.5	525	75	612.5	512.5	75	625	512.5	100	625	512.5	75	612.5	500	100	612.5	500	75	625	500	100	625	500	75	637.5	525	100	637.5	512.5	100	637.5	525	75	637.5	512.5	75	650	512.5	100	650	512.5	75	637.5	500	100	637.5	500	75	650	500	100	650	500	75	675	525	100	675	500	100	700	525	100	700	500	100	675	525	75	675	500	75	700	525	75	700	500	75	650	537.5	100	662.5	550	100	662.5	537.5	100	650	537.5	75	662.5	550	75	662.5	537.5	75	675	537.5	100	675	537.5	75	662.5	525	100	662.5	525	75	687.5	537.5	100	687.5	537.5	75	700	537.5	100	700	537.5	75	687.5	525	100	687.5	525	75	662.5	512.5	100	662.5	512.5	75	675	512.5	100	675	512.5	75	662.5	500	100	662.5	500	75	750	550	100	750	500	100	800	550	100	750	550	75	750	500	75	800	550	75	725	575	100	725	550	100	750	575	100	725	575	75	725	550	75	750	575	75	700	587.5	100	712.5	600	100	712.5	587.5	100	700	587.5	75	712.5	600	75	712.5	587.5	75	725	587.5	100	725	587.5	75	712.5	575	100	712.5	575	75	737.5	587.5	100	737.5	587.5	75	750	587.5	100	750	587.5	75	737.5	575	100	737.5	575	75	712.5	562.5	100	712.5	562.5	75	72
[...]
<CellData Scalars="scalars">
<DataArray type="Int32" Name="nodeid" format="ascii">1	2	3	4	5	6	7	8	9	10	201	202	205	206	208	207	203	209	210	212	213	214	216	217	218	220	219	13	14	15	16	17	18	19	20	221	225	226	228	227	224	223	237	241	242	244	243	240	239	245	246	248	247	236	235	249	250	252	251	232	231	253	254	256	255	24	25	26	27	28	257	258	260	259	261	262	265	266	268	267	263	31	32	33	34	35	36	269	270	272	271	273	274	285	286	293	294	296	295	289	290	292	291	277	278	281	282	284	283	279	301	302	304	303	305	306	308	307	329	330	332	331	333	334	336	335	328	327	309	313	314	316	315	321	322	324	323	317	318	320	319	341	342	349	350	352	351	345	346	348	347	353	357	358	360	359	365	366	368	367	361	362	364	363	377	378	380	379	373	374	376	375	370	372	371	41	42	43	44	45	381	382	385	386	388	387	383	389	393	394	397	398	400	399	395	417	418	420	419	421	422	424	423	416	425	426	428	427	401	402	409	410	412	411	405	406	408	407	437	438	440	439	441	442	444	443	436	445	446	448	447	453	454	456	455	450	452	451	432	457	458	460	459	465	466	468	467	462	464	463	469	470	472	471	473	474	476	475	477	478	480	479	481	482	484	483	485	486	489	490	492	491	487	493	494	501	502	505	506	508	507	503	497	498	500	499	513	514	516	515	517	521	522	524	523	529	530	532	531	525	526	528	527	553	554	556	555	550	552	551	533	537	538	540	539	545	546	548	547	541	542	544	543	565	566	568	567	569	570	572	571	564	563	573	574	576	575	560	559	577	578	580	579	59	60	585	586	588	587	582	609	610	617	618	620	619	613	614	616	615	593	594	596	595	597	598	600	599	605	606	608	607	601	602	604	603	621	625	626	628	627	645	646	648	647	649	650	652	651	657	658	660	659	653	654	656	655	629	630	637	638	640	639	633	634	636	635	665	666	668	667	669	670	673	674	676	675	671	693	694	696	695	697	698	700	699	692	691	681	682	684	683	685	686	688	687	680	679	705	706	713	714	716	715	709	710	712	711	717	721	722	724	723	729	730	732	731	725	726	728	727	741	742	744	743	737	738	740	739	734	736	735	753	754	756	755	757	758	760	759	752	761	762	764	763	769	770	772	771	773	774	776	775	768	767	748	777	778	780	779	789	790	792	791	786	788	787	782	784	783	67	793	794	796	795	69	70	801	802	804	803	805	806	808	807	800	799	813	814	816	815	817	818	820	819	812	811	821	822	824	823	825	826	828	827	829	830	832	831	76	833	834	836	835	837	841	842	844	843	849	853	854	856	855	865	866	868	867	862	864	863	857	858	860	859	845	846	848	847	869	870	872	873	874	876	875	80	81	82	83	84	85	86	87	877	881	882	884	883	880	879	885	886	888	887	90	91	92	93	94	95	96	97	98	99	100	101	102	103	104	105	106	107	108	109	110	889	890	893	894	896	895	891	897	898	900	901	902	904	905	906	908	907	113	114	115	116	117	118	119	120	909	913	914	916	915	912	911	925	929	930	932	931	928	927	933	934	936	935	924	923	937	938	940	939	920	919	941	942	944	943	124	125	126	127	128	945	946	948	947	949	950	953	954	956	955	951	131	132	133	134	135	136	957	958	960	959	961	962	973	974	981	982	984	983	977	978	980	979	965	966	969	970	972	971	967	989	990	992	991	993	994	996	995	1017	1018	1020	1019	1021	1022	1024	1023	1016	1015	997	1001	1002	1004	1003	1009	1010	1012	1011	1005	1006	1008	1007	1029	1030	1037	1038	1040	1039	1033	1034	1036	1035	1041	1045	1046	1048	1047	1053	1054	1056	1055	1049	1050	1052	1051	1065	1066	1068	1067	1061	1062	1064	1063	1058	1060	1059	141	142	143	144	145	1069	1070	1073	1074	1076	1075	1071	1077	1081	1082	1085	1086	1088	1087	1083	1105	1106	1108	1107	1109	1110	1112	1111	1104	1113	1114	1116	1115	1089	1090	1097	1098	1100	1099	1093	1094	1096	1095	1125	1126	1128	1127	1129	1130	1132	1131	1124	1133	1134	1136	1135	1141	1142	1144	1143	1138	1140	1139	1120	1145	1146	1148	1147	1153	1154	1156	1155	1150	1152	1151	1157	1158	1160	1159	1161	1162	1164	1163	1165	1166	1168	1167	1169	1170	1172	1171	1173	1174	1177	1178	1180	1179	1175	1181	1182	1189	1190	1193	1194	1196	1195	1191	1185	1186	1188	1187	1201	1202	1204	1203	1205	1209	1210	1212	1211	1217	1218	1220	1219	1213	1214	1216	1215	1241	1242	1244	1243	1238	1240	1239	1221	1225	1226	1228	1227	1233	1234	1236	1235	1229	1230	1232	1231	1253	1254	1256	1255	1257	1258	1260	1259	1252	1251	1261	1262	1264	1263	1248	1247	1265	1266	1268	1267	159	160	1273	1274	1276	1275	1270	1297	1298	1305	1306	1308	1307	1301	1302	1304	1303	1281	1282	1284	1283	1285	1286	1288	1287	1293	1294	1296	1295	1289	1290	1292	1291	1309	1313	1314	1316	1315	1333	1334	1336	1335	1337	1338	1340	1339	1345	1346	1348	1347	1341	1342	1344	1343	1317	1318	1325	1326	1328	1327	1321	1322	1324	1323	1353	1354	1356	1355	1357	1358	1361	1362	1364	1363	1359	1381	1382	1384	1383	1385	1386	1388	1387	1380	1379	1369	1370	1372	1371	1373	1374	1376	1375	1368	1367	1393	1394	1401	1402	1404	1403	1397	1398	1400	1399	1405	1409	1410	1412	1411	1417	1418	1420	1419	1413	1414	1416	1415	1429	1430	1432	1431	1425	1426	1428	1427	1422	1424	1423	1441	1442	1444	1443	1445	1446	1448	1447	1440	1449	1450	1452	1451	1457	1458	1460	1459	1461	1462	1464	1463	1456	1455	1436	1465	1466	1468	1467	1477	1478	1480	1479	1474	1476	1475	1470	1472	1471	167	1481	1482	1484	1483	169	170	1489	1490	1492	1491	1493	1494	1496	1495	1488	1487	1501	1502	1504	1503	1505	1506	1508	1507	1500	1499	1509	1510	1512	1511	1513	1514	1516	1515	1517	1518	1520	1519	176	1521	1522	1524	1523	1525	1529	1530	1532	1531	1537	1541	1542	1544	1543	1553	1554	1556	1555	1550	1552	1551	1545	1546	1548	1547	1533	1534	1536	1535	1557	1558	1560	1561	1562	1564	1563	180	181	182	183	184	185	186	187	1565	1569	1570	1572	1571	1568	1567	1573	1574	1576	1575	190	191	192	193	194	195	196	197	198	199	200	</DataArray>
<DataArray type="Int32" Name="nodenumber" format="ascii">1	2	3	4	5	6	7	8	9	10	11	12	14	15	17	16	13	18	19	27	20	21	26	22	23	25	24	28	29	30	31	32	33	34	35	36	37	38	40	39	42	41	43	44	45	47	46	49	48	50	51	53	52	55	54	56	57	59	58	61	60	62	63	65	64	66	67	68	69	70	71	72	74	73	75	76	78	79	81	80	77	82	83	84	85	86	87	88	89	91	90	92	93	101	102	107	108	110	109	103	104	106	105	94	95	97	98	100	99	96	111	112	114	113	115	116	118	117	132	133	135	134	136	137	139	138	141	140	119	120	121	123	122	128	129	131	130	124	125	127	126	142	143	148	149	151	150	144	145	147	146	152	153	154	156	155	161	162	164	163	157	158	160	159	172	173	175	174	165	166	168	167	169	171	170	176	177	178	179	180	181	182	184	185	187	186	183	188	189	190	192	193	195	194	191	206	207	209	208	210	211	213	212	218	214	215	217	216	196	197	202	203	205	204	198	199	201	200	219	220	222	221	223	224	226	225	231	227	228	230	229	232	233	235	234	236	238	237	243	239	240	242	241	244	245	247	246	248	250	249	251	252	254	253	255	256	258	257	259	260	262	261	263	264	266	265	267	268	270	271	273	272	269	274	275	280	281	283	284	286	285	282	276	277	279	278	287	288	290	289	291	292	293	295	294	300	301	303	302	296	297	299	298	317	318	320	319	321	323	322	304	305	306	308	307	313	314	316	315	309	310	312	311	324	325	327	326	328	329	331	330	333	332	334	335	337	336	339	338	340	341	343	342	344	345	346	347	349	348	350	367	368	373	374	376	375	369	370	372	371	351	352	354	353	355	356	358	357	363	364	366	365	359	360	362	361	377	378	379	381	380	392	393	395	394	396	397	399	398	404	405	407	406	400	401	403	402	382	383	388	389	391	390	384	385	387	386	408	409	411	410	412	413	415	416	418	417	414	429	430	432	431	433	434	436	435	438	437	419	420	422	421	423	424	426	425	428	427	439	440	445	446	448	447	441	442	444	443	449	450	451	453	452	458	459	461	460	454	455	457	456	469	470	472	471	462	463	465	464	466	468	467	473	474	476	475	477	478	480	479	485	481	482	484	483	486	487	489	488	490	491	493	492	495	494	500	496	497	499	498	501	502	504	503	505	507	506	508	510	509	511	512	513	515	514	516	517	518	519	521	520	522	523	525	524	527	526	528	529	531	530	532	533	535	534	537	536	538	539	541	540	542	543	545	544	546	547	549	548	550	551	552	554	553	555	556	557	559	558	564	565	566	568	567	573	574	576	575	577	579	578	569	570	572	571	560	561	563	562	580	581	586	582	583	585	584	587	588	589	590	591	592	593	594	595	596	597	599	598	601	600	602	603	605	604	606	607	608	609	610	611	612	613	614	615	616	617	618	619	620	621	622	623	624	625	626	627	628	630	631	633	632	629	634	635	643	636	637	642	638	639	641	640	644	645	646	647	648	649	650	651	652	653	654	656	655	658	657	659	660	661	663	662	665	664	666	667	669	668	671	670	672	673	675	674	677	676	678	679	681	680	682	683	684	685	686	687	688	690	689	691	692	694	695	697	696	693	698	699	700	701	702	703	704	705	707	706	708	709	717	718	723	724	726	725	719	720	722	721	710	711	713	714	716	715	712	727	728	730	729	731	732	734	733	748	749	751	750	752	753	755	754	757	756	735	736	737	739	738	744	745	747	746	740	741	743	742	758	759	764	765	767	766	760	761	763	762	768	769	770	772	771	777	778	780	779	773	774	776	775	788	789	791	790	781	782	784	783	785	787	786	792	793	794	795	796	797	798	800	801	803	802	799	804	805	806	808	809	811	810	807	822	823	825	824	826	827	829	828	834	830	831	833	832	812	813	818	819	821	820	814	815	817	816	835	836	838	837	839	840	842	841	847	843	844	846	845	848	849	851	850	852	854	853	859	855	856	858	857	860	861	863	862	864	866	865	867	868	870	869	871	872	874	873	875	876	878	877	879	880	882	881	883	884	886	887	889	888	885	890	891	896	897	899	900	902	901	898	892	893	895	894	903	904	906	905	907	908	909	911	910	916	917	919	918	912	913	915	914	933	934	936	935	937	939	938	920	921	922	924	923	929	930	932	931	925	926	928	927	940	941	943	942	944	945	947	946	949	948	950	951	953	952	955	954	956	957	959	958	960	961	962	963	965	964	966	983	984	989	990	992	991	985	986	988	987	967	968	970	969	971	972	974	973	979	980	982	981	975	976	978	977	993	994	995	997	996	1008	1009	1011	1010	1012	1013	1015	1014	1020	1021	1023	1022	1016	1017	1019	1018	998	999	1004	1005	1007	1006	1000	1001	1003	1002	1024	1025	1027	1026	1028	1029	1031	1032	1034	1033	1030	1045	1046	1048	1047	1049	1050	1052	1051	1054	1053	1035	1036	1038	1037	1039	1040	1042	1041	1044	1043	1055	1056	1061	1062	1064	1063	1057	1058	1060	1059	1065	1066	1067	1069	1068	1074	1075	1077	1076	1070	1071	1073	1072	1085	1086	1088	1087	1078	1079	1081	1080	1082	1084	1083	1089	1090	1092	1091	1093	1094	1096	1095	1101	1097	1098	1100	1099	1102	1103	1105	1104	1106	1107	1109	1108	1111	1110	1116	1112	1113	1115	1114	1117	1118	1120	1119	1121	1123	1122	1124	1126	1125	1127	1128	1129	1131	1130	1132	1133	1134	1135	1137	1136	1138	1139	1141	1140	1143	1142	1144	1145	1147	1146	1148	1149	1151	1150	1153	1152	1154	1155	1157	1156	1158	1159	1161	1160	1162	1163	1165	1164	1166	1167	1168	1170	1169	1171	1172	1173	1175	1174	1180	1181	1182	1184	1183	1189	1190	1192	1191	1193	1195	1194	1185	1186	1188	1187	1176	1177	1179	1178	1196	1197	1202	1198	1199	1201	1200	1203	1204	1205	1206	1207	1208	1209	1210	1211	1212	1213	1215	1214	1217	1216	1218	1219	1221	1220	1222	1223	1224	1225	1226	1227	1228	1229	1230	1231	1232	</DataArray>
<DataArray type="Int32" Name="layer" format="ascii">1	1	1	1	1	1	1	1	1	1	1	1	1	1	1	1	1	1	1	1	1	1	1	1	1	1	1	1	1	1	1	1	1	1	1	1	1	1	1	1	1	1	1	1	1	1	1	1	1	1	1	1	1	1	1	1	1	1	1	1	1	1	1	1	1	1	1	1	1	1	1	1	1	1	1	1	1	1	1	1	1	1	1	1	1	1	1	1	1	1	1	1	1	1	1	1	1	1	1	1	1	1	1	1	1	1	1	1	1	1	1	1	1	1	1	1	1	1	1	1	1	1	1	1	1	1	1	1	1	1	1	1	1	1	1	1	1	1	1	1	1	1	1	1	1	1	1	1	1	1	1	1	1	1	1	1	1	1	1	1	1	1	1	1	1	1	1	1	1	1	1	1	1	1	1	1	1	1	1	1	1	1	1	1	1	1	1	1	1	1	1	1	1	1	1	1	1	1	1	1	1	1	1	1	1	1	1	1	1	1	1	1	1	1	1	1	1	1	1	1	1	1	1	1	1	1	1	1	1	1	1	1	1	1	1	1	1	1	1	1	1	1	1	1	1	1	1	1	1	1	1	1	1	1	1	1	1	1	1	1	1	1	1	1	1	1	1	1	1	1	1	1	1	1	1	1	1	1	1	1	1	1	1	1	1	1	1	1	1	1	1	1	1	1	1	1	1	1	1	1	1	1	1	1	1	1	1	1	1	1	1	1	1	1	1	1	1	1	1	1	1	1	1	1	1	1	1	1	1	1	1	1	1	1	1	1	1	1	1	1	1	1	1	1	1	1	1	1	1	1	1	1	1	1	1	1	1	1	1	1	1	1	1	1	1	1	1	1	1	1	1	1	1	1	1	1	1	1	1	1	1	1	1	1	1	1	1	1	1	1	1	1	1	1	1	1	1	1	1	1	1	1	1	1	1	1	1	1	1	1	1	1	1	1	1	1	1	1	1	1	1	1	1	1	1	1	1	1	1	1	1	1	1	1	1	1	1	1	1	1	1	1	1	1	1	1	1	1	1	1	1	1	1	1	1	1	1	1	1	1	1	1	1	1	1	1	1	1	1	1	1	1	1	1	1	1	1	1	1	1	1	1	1	1	1	1	1	1	1	1	1	1	1	1	1	1	1	1	1	1	1	1	1	1	1	1	1	1	1	1	1	1	1	1	1	1	1	1	1	1	1	1	1	1	1	1	1	1	1	1	1	1	1	1	1	1	1	1	1	1	1	1	1	1	1	1	1	1	1	1	1	1	1	1	1	1	1	1	1	1	1	1	1	1	1	1	1	1	1	1	1	1	1	1	1	1	1	1	1	1	1	1	1	1	1	1	1	1	1	1	1	1	1	1	1	1	1	1	1	1	1	1	1	1	1	1	1	1	1	1	1	1	1	1	1	1	2	2	2	2	2	2	2	2	2	2	2	2	2	2	2	2	2	2	2	2	2	2	2	2	2	2	2	2	2	2	2	2	2	2	2	2	2	2	2	2	2	2	2	2	2	2	2	2	2	2	2	2	2	2	2	2	2	2	2	2	2	2	2	2	2	2	2	2	2	2	2	2	2	2	2	2	2	2	2	2	2	2	2	2	2	2	2	2	2	2	2	2	2	2	2	2	2	2	2	2	2	2	2	2	2	2	2	2	2	2	2	2	2	2	2	2	2	2	2	2	2	2	2	2	2	2	2	2	2	2	2	2	2	2	2	2	2	2	2	2	2	2	2	2	2	2	2	2	2	2	2	2	2	2	2	2	2	2	2	2	2	2	2	2	2	2	2	2	2	2	2	2	2	2	2	2	2	2	2	2	2	2	2	2	2	2	2	2	2	2	2	2	2	2	2	2	2	2	2	2	2	2	2	2	2	2	2	2	2	2	2	2	2	2	2	2	2	2	2	2	2	2	2	2	2	2	2	2	2	2	2	2	2	2	2	2	2	2	2	2	2	2	2	2	2	2	2	2	2	2	2	2	2	2	2	2	2	2	2	2	2	2	2	2	2	2	2	2	2	2	2	2	2	2	2	2	2	2	2	2	2	2	2	2	2	2	2	2	2	2	2	2	2	2	2	2	2	2	2	2	2	2	2	2	2	2	2	2	2	2	2	2	2	2	2	2	2	2	2	2	2	2	2	2	2	2	2	2	2	2	2	2	2	2	2	2	2	2	2	2	2	2	2	2	2	2	2	2	2	2	2	2	2	2	2	2	2	2	2	2	2	2	2	2	2	2	2	2	2	2	2	2	2	2	2	2	2	2	2	2	2	2	2	2	2	2	2	2	2	2	2	2	2	2	2	2	2	2	2	2	2	2	2	2	2	2	2	2	2	2	2	2	2	2	2	2	2	2	2	2	2	2	2	2	2	2	2	2	2	2	2	2	2	2	2	2	2	2	2	2	2	2	2	2	2	2	2	2	2	2	2	2	2	2	2	2	2	2	2	2	2	2	2	2	2	2	2	2	2	2	2	2	2	2	2	2	2	2	2	2	2	2	2	2	2	2	2	2	2	2	2	2	2	2	2	2	2	2	2	2	2	2	2	2	2	2	2	2	2	2	2	2	2	2	2	2	2	2	2	2	2	2	2	2	2	2	2	2	2	2	2	2	2	2	2	2	2	2	2	2	2	2	2	2	2	2	2	2	2	2	2	2	2	2	2	2	2	2	2	2	2	2	2	2	2	2	2	2	2	2	2	2	2	2	2	2	2	2	2	2	2	2	2	2	2	2	2	2	2	2	2	2	2	2	2	2	2	2	2	2	2	2	2	2	2	2	2	2	2	2	2	2	2	2	2	2	</DataArray>
<DataArray type="Int32" Name="row" format="ascii">1	1	1	1	1	1	1	1	1	1	2	2	2	2	2	2	2	2	2	2	2	2	2	2	2	2	2	2	2	2	2	2	2	2	2	3	3	3	3	3	3	3	3	3	3	3	3	3	3	3	3	3	3	3	3	3	3	3	3	3	3	3	3	3	3	3	3	3	3	3	3	3	3	3	3	3	3	3	3	3	3	4	4	4	4	4	4	4	4	4	4	4	4	4	4	4	4	4	4	4	4	4	4	4	4	4	4	4	4	4	4	4	4	4	4	4	4	4	4	4	4	4	4	4	4	4	4	4	4	4	4	4	4	4	4	4	4	4	4	4	4	4	4	4	4	4	4	4	4	4	4	4	4	4	4	4	4	4	4	4	4	4	4	4	4	4	4	4	4	4	4	4	4	4	4	5	5	5	5	5	5	5	5	5	5	5	5	5	5	5	5	5	5	5	5	5	5	5	5	5	5	5	5	5	5	5	5	5	5	5	5	5	5	5	5	5	5	5	5	5	5	5	5	5	5	5	5	5	5	5	5	5	5	5	5	5	5	5	5	5	5	5	5	5	5	5	5	5	5	5	5	5	5	5	6	6	6	6	6	6	6	6	6	6	6	6	6	6	6	6	6	6	6	6	6	6	6	6	6	6	6	6	6	6	6	6	6	6	6	6	6	6	6	6	6	6	6	6	6	6	6	6	6	6	6	6	6	6	6	6	6	6	6	6	6	6	6	6	6	6	6	6	6	6	6	6	6	6	6	6	6	6	6	6	6	6	6	6	6	6	6	6	6	6	6	7	7	7	7	7	7	7	7	7	7	7	7	7	7	7	7	7	7	7	7	7	7	7	7	7	7	7	7	7	7	7	7	7	7	7	7	7	7	7	7	7	7	7	7	7	7	7	7	7	7	7	7	7	7	7	7	7	7	7	7	7	7	7	7	7	7	7	7	7	7	7	7	7	7	7	7	7	7	7	7	7	7	7	7	7	7	7	7	7	7	7	7	7	7	7	7	7	7	7	7	7	7	7	7	7	7	7	7	7	7	7	7	7	7	7	7	7	7	7	7	7	7	7	7	7	7	7	7	7	7	7	7	7	7	7	7	7	7	7	7	7	7	7	7	7	7	7	7	7	7	7	7	7	7	7	7	7	7	7	7	7	7	7	7	7	7	7	7	7	7	7	7	8	8	8	8	8	8	8	8	8	8	8	8	8	8	8	8	8	8	8	8	8	8	8	8	8	8	8	8	8	8	8	8	8	8	8	8	8	8	8	8	8	8	8	8	8	8	8	8	8	8	8	8	8	8	8	8	8	8	8	8	8	8	8	8	8	8	8	8	8	8	9	9	9	9	9	9	9	9	9	9	9	9	9	9	9	9	9	9	9	10	10	10	10	10	10	10	10	10	10	1	1	1	1	1	1	1	1	1	1	2	2	2	2	2	2	2	2	2	2	2	2	2	2	2	2	2	2	2	2	2	2	2	2	2	3	3	3	3	3	3	3	3	3	3	3	3	3	3	3	3	3	3	3	3	3	3	3	3	3	3	3	3	3	3	3	3	3	3	3	3	3	3	3	3	3	3	3	3	3	3	4	4	4	4	4	4	4	4	4	4	4	4	4	4	4	4	4	4	4	4	4	4	4	4	4	4	4	4	4	4	4	4	4	4	4	4	4	4	4	4	4	4	4	4	4	4	4	4	4	4	4	4	4	4	4	4	4	4	4	4	4	4	4	4	4	4	4	4	4	4	4	4	4	4	4	4	4	4	4	4	4	4	4	4	4	4	4	4	4	4	4	4	4	4	5	5	5	5	5	5	5	5	5	5	5	5	5	5	5	5	5	5	5	5	5	5	5	5	5	5	5	5	5	5	5	5	5	5	5	5	5	5	5	5	5	5	5	5	5	5	5	5	5	5	5	5	5	5	5	5	5	5	5	5	5	5	5	5	5	5	5	5	5	5	5	5	5	5	5	5	5	5	5	6	6	6	6	6	6	6	6	6	6	6	6	6	6	6	6	6	6	6	6	6	6	6	6	6	6	6	6	6	6	6	6	6	6	6	6	6	6	6	6	6	6	6	6	6	6	6	6	6	6	6	6	6	6	6	6	6	6	6	6	6	6	6	6	6	6	6	6	6	6	6	6	6	6	6	6	6	6	6	6	6	6	6	6	6	6	6	6	6	6	6	7	7	7	7	7	7	7	7	7	7	7	7	7	7	7	7	7	7	7	7	7	7	7	7	7	7	7	7	7	7	7	7	7	7	7	7	7	7	7	7	7	7	7	7	7	7	7	7	7	7	7	7	7	7	7	7	7	7	7	7	7	7	7	7	7	7	7	7	7	7	7	7	7	7	7	7	7	7	7	7	7	7	7	7	7	7	7	7	7	7	7	7	7	7	7	7	7	7	7	7	7	7	7	7	7	7	7	7	7	7	7	7	7	7	7	7	7	7	7	7	7	7	7	7	7	7	7	7	7	7	7	7	7	7	7	7	7	7	7	7	7	7	7	7	7	7	7	7	7	7	7	7	7	7	7	7	7	7	7	7	7	7	7	7	7	7	7	7	7	7	7	7	8	8	8	8	8	8	8	8	8	8	8	8	8	8	8	8	8	8	8	8	8	8	8	8	8	8	8	8	8	8	8	8	8	8	8	8	8	8	8	8	8	8	8	8	8	8	8	8	8	8	8	8	8	8	8	8	8	8	8	8	8	8	8	8	8	8	8	8	8	8	9	9	9	9	9	9	9	9	9	9	9	9	9	9	9	9	9	9	9	10	10	10	10	10	10	10	10	10	10	</DataArray>
<DataArray type="Int32" Name="col" format="ascii">1	2	3	4	5	6	7	8	9	10	1	1	1	1	1	1	1	2	2	2	2	2	2	2	2	2	2	3	4	5	6	7	8	9	10	1	1	1	1	1	1	1	2	2	2	2	2	2	2	2	2	2	2	2	2	2	2	2	2	2	2	3	3	3	3	4	5	6	7	8	9	9	9	9	10	10	10	10	10	10	10	1	2	3	4	5	6	7	7	7	7	8	8	8	8	8	8	8	8	8	8	8	8	8	8	8	8	8	8	8	9	9	9	9	9	9	9	9	9	9	9	9	9	9	9	9	9	9	9	9	9	9	9	9	9	9	9	9	9	9	9	10	10	10	10	10	10	10	10	10	10	10	10	10	10	10	10	10	10	10	10	10	10	10	10	10	10	10	10	10	10	10	10	10	10	1	2	3	4	5	6	6	6	6	6	6	6	7	7	7	7	7	7	7	7	7	7	7	7	7	7	7	7	7	7	7	7	7	7	7	7	7	7	7	7	7	7	7	8	8	8	8	8	8	8	8	8	8	8	8	8	8	8	8	8	8	8	8	8	8	8	8	8	9	9	9	9	9	9	9	10	10	10	10	1	1	1	1	2	2	2	2	3	3	3	3	4	4	4	4	4	4	4	5	5	5	5	5	5	5	5	5	5	5	5	5	6	6	6	6	6	6	6	6	6	6	6	6	6	6	6	6	6	6	6	6	6	6	6	6	6	6	6	6	6	6	6	6	6	6	6	6	6	7	7	7	7	7	7	7	7	7	7	7	7	7	7	7	7	8	8	8	8	9	10	1	1	1	1	1	1	1	1	1	1	1	1	1	1	1	1	1	1	1	1	1	1	1	1	1	1	1	1	1	1	1	2	2	2	2	2	2	2	2	2	2	2	2	2	2	2	2	2	2	2	2	2	2	2	2	2	2	2	2	2	2	2	3	3	3	3	3	3	3	3	3	3	3	3	3	3	3	3	3	3	3	3	3	3	3	3	3	3	3	3	3	3	3	4	4	4	4	4	4	4	4	4	4	4	4	4	4	4	4	4	4	4	4	4	4	4	4	4	4	4	4	4	4	4	4	4	4	5	5	5	5	5	5	5	5	5	5	5	5	5	5	5	5	5	5	5	5	5	5	5	5	5	5	5	5	6	6	6	6	6	6	6	6	6	6	7	8	8	8	8	9	10	1	1	1	1	1	1	1	1	1	1	2	2	2	2	2	2	2	2	2	2	3	3	3	3	4	4	4	4	5	5	5	5	6	7	7	7	7	8	8	8	8	8	8	8	8	8	8	8	8	8	8	8	8	8	8	8	8	8	8	8	8	8	9	9	9	9	9	9	9	10	1	2	3	4	5	6	7	8	8	8	8	8	8	8	9	9	9	9	10	1	2	3	4	5	6	7	8	9	10	1	2	3	4	5	6	7	8	9	10	1	1	1	1	1	1	1	2	2	2	2	2	2	2	2	2	2	3	4	5	6	7	8	9	10	1	1	1	1	1	1	1	2	2	2	2	2	2	2	2	2	2	2	2	2	2	2	2	2	2	2	3	3	3	3	4	5	6	7	8	9	9	9	9	10	10	10	10	10	10	10	1	2	3	4	5	6	7	7	7	7	8	8	8	8	8	8	8	8	8	8	8	8	8	8	8	8	8	8	8	9	9	9	9	9	9	9	9	9	9	9	9	9	9	9	9	9	9	9	9	9	9	9	9	9	9	9	9	9	9	9	10	10	10	10	10	10	10	10	10	10	10	10	10	10	10	10	10	10	10	10	10	10	10	10	10	10	10	10	10	10	10	10	10	10	1	2	3	4	5	6	6	6	6	6	6	6	7	7	7	7	7	7	7	7	7	7	7	7	7	7	7	7	7	7	7	7	7	7	7	7	7	7	7	7	7	7	7	8	8	8	8	8	8	8	8	8	8	8	8	8	8	8	8	8	8	8	8	8	8	8	8	8	9	9	9	9	9	9	9	10	10	10	10	1	1	1	1	2	2	2	2	3	3	3	3	4	4	4	4	4	4	4	5	5	5	5	5	5	5	5	5	5	5	5	5	6	6	6	6	6	6	6	6	6	6	6	6	6	6	6	6	6	6	6	6	6	6	6	6	6	6	6	6	6	6	6	6	6	6	6	6	6	7	7	7	7	7	7	7	7	7	7	7	7	7	7	7	7	8	8	8	8	9	10	1	1	1	1	1	1	1	1	1	1	1	1	1	1	1	1	1	1	1	1	1	1	1	1	1	1	1	1	1	1	1	2	2	2	2	2	2	2	2	2	2	2	2	2	2	2	2	2	2	2	2	2	2	2	2	2	2	2	2	2	2	2	3	3	3	3	3	3	3	3	3	3	3	3	3	3	3	3	3	3	3	3	3	3	3	3	3	3	3	3	3	3	3	4	4	4	4	4	4	4	4	4	4	4	4	4	4	4	4	4	4	4	4	4	4	4	4	4	4	4	4	4	4	4	4	4	4	5	5	5	5	5	5	5	5	5	5	5	5	5	5	5	5	5	5	5	5	5	5	5	5	5	5	5	5	6	6	6	6	6	6	6	6	6	6	7	8	8	8	8	9	10	1	1	1	1	1	1	1	1	1	1	2	2	2	2	2	2	2	2	2	2	3	3	3	3	4	4	4	4	5	5	5	5	6	7	7	7	7	8	8	8	8	8	8	8	8	8	8	8	8	8	8	8	8	8	8	8	8	8	8	8	8	8	9	9	9	9	9	9	9	10	1	2	3	4	5	6	7	8	8	8	8	8	8	8	9	9	9	9	10	1	2	3	4	5	6	7	8	9	10	</DataArray>